 Gaussian 09, Revision C.01,
 Gaussian 09:  EM64L-G09RevC.01 23-Sep-2011

 ----------------------------
 # hf/3-21g geom=connectivity
 ----------------------------

 99/5=1,9=1/99;
 -----
 mol_7
 -----
 Charge =  0 Multiplicity = 1

                         Standard orientation:
 ---------------------------------------------------------------------
 Center     Atomic      Atomic             Coordinates (Angstroms)
 Number     Number       Type             X           Y           Z
 ---------------------------------------------------------------------
      1          6           0       -0.663491   -0.166483    0.006311
      2          6           0       -1.304466    1.133545   -0.434851
      3          6           0       -0.547429    2.331796    0.100742
      4          6           0        0.914860    2.278399   -0.293468
      5          6           0        1.556027    0.978692    0.148426
      6          6           0        0.798936   -0.220075   -0.385626
      7          1           0       -1.008589    3.274420   -0.293140
      8          1           0       -1.325688    1.176949   -1.555578
      9          1           0       -2.365962    1.169246   -0.076266
     10          1           0        1.004673    2.378940   -1.407099
     11          1           0        1.460235    3.142133    0.168021
     12          1           0        2.617349    0.942748   -0.210531
     13          1           0        1.577771    0.936382    1.269233
     14          1           0        0.884468   -0.247339   -1.503788
     15          1           0       -0.631477    2.356774    1.218991
     16          6           0       -1.411900   -1.352678   -0.629633
     17          1           0       -0.970850   -2.270367   -0.300664
     18          1           0       -1.344792   -1.286643   -1.695483
     19          6           0       -2.891677   -1.313127   -0.205021
     20          1           0       -3.425059   -0.631197   -0.833810
     21          1           0       -3.315882   -2.290966   -0.298725
     22          1           0       -2.962246   -0.989736    0.812495
     23          6           0       -0.789059   -0.305974    1.534832
     24          1           0       -1.722128    0.108233    1.855325
     25          1           0       -0.747327   -1.340943    1.803155
     26          1           0        0.015032    0.217870    2.008039
     27          6           0        1.431728   -1.514249    0.158697
     28          1           0        0.952149   -2.360594   -0.286954
     29          1           0        1.307945   -1.552463    1.220826
     30          6           0        2.932909   -1.535320   -0.184247
     31          1           0        3.471100   -0.953008    0.534197
     32          1           0        3.289117   -2.544098   -0.164647
     33          1           0        3.081539   -1.123496   -1.160572
 ---------------------------------------------------------------------

 SCF Done:  E(RHF) =  -426.978563324     A.U. after   11 cycles

 The electronic state is 1-A.
 Alpha  occ. eigenvalues --  -11.16106 -11.15842 -11.15786 -11.15762 -11.15561
 Alpha  occ. eigenvalues --  -11.15470 -11.14635 -11.14543 -11.13990 -11.13761
 Alpha  occ. eigenvalues --  -11.13647  -1.15470  -1.06429  -1.05668  -0.98442
 Alpha  occ. eigenvalues --   -0.97630  -0.92683  -0.86697  -0.85803  -0.78464
 Alpha  occ. eigenvalues --   -0.77750  -0.71177  -0.65969  -0.63635  -0.62941
 Alpha  occ. eigenvalues --   -0.60706  -0.59548  -0.57529  -0.57064  -0.56080
 Alpha  occ. eigenvalues --   -0.55126  -0.53160  -0.51921  -0.50217  -0.48766
 Alpha  occ. eigenvalues --   -0.48466  -0.47754  -0.47294  -0.46804  -0.45778
 Alpha  occ. eigenvalues --   -0.45060  -0.41858  -0.39843  -0.39620
 Alpha virt. eigenvalues --    0.25051   0.25979   0.28087   0.28308   0.30381
 Alpha virt. eigenvalues --    0.30767   0.31315   0.32050   0.32436   0.33403
 Alpha virt. eigenvalues --    0.33812   0.35568   0.36053   0.36582   0.37138

 Mulliken atomic charges:
              1
     1  C   -0.194328
     2  C   -0.337507
     3  C   -0.397933
     4  C   -0.387551
     5  C   -0.378236
     6  C   -0.220690
     7  H    0.197728
     8  H    0.187530
     9  H    0.202154
    10  H    0.190857
    11  H    0.195983
    12  H    0.210619
    13  H    0.190481
    14  H    0.196981
    15  H    0.196909
    16  C   -0.369297
    17  H    0.212190
    18  H    0.203767
    19  C   -0.606524
    20  H    0.203750
    21  H    0.199925
    22  H    0.212606
    23  C   -0.557520
    24  H    0.201375
    25  H    0.204145
    26  H    0.211044
    27  C   -0.409019
    28  H    0.216738
    29  H    0.216982
    30  C   -0.597132
    31  H    0.203820
    32  H    0.200426
    33  H    0.199726
 Sum of Mulliken atomic charges =   0.00000

 Dipole moment (field-independent basis, Debye):
    X=              0.0386    Y=             -0.0853    Z=              0.0514  Tot=              0.1068
 Quadrupole moment (field-independent basis, Debye-Ang):
   XX=            -76.4551   YY=            -75.1926   ZZ=            -74.4045
   XY=             -0.0701   XZ=              0.1312   YZ=             -0.0058

 Normal termination of Gaussian 09 at Sun Jun 26 00:41:28 2022.
