 Gaussian 09, Revision C.01,
 Gaussian 09:  EM64L-G09RevC.01 23-Sep-2011

 ----------------------------
 # hf/3-21g geom=connectivity
 ----------------------------

 99/5=1,9=1/99;
 -----
 mol_8
 -----
 Charge =  0 Multiplicity = 1

                         Standard orientation:
 ---------------------------------------------------------------------
 Center     Atomic      Atomic             Coordinates (Angstroms)
 Number     Number       Type             X           Y           Z
 ---------------------------------------------------------------------
      1          6           0        4.706565   -0.644645    0.286389
      2          1           0        4.782011   -1.687198    0.057721
      3          1           0        4.296537   -0.523397    1.267244
      4          1           0        5.679071   -0.199983    0.248878
      5          6           0        3.788429    0.041367   -0.742209
      6          1           0        3.711434    1.083557   -0.512402
      7          1           0        4.199460   -0.078216   -1.722848
      8          6           0        2.389531   -0.600486   -0.690171
      9          1           0        1.751501   -0.123591   -1.404586
     10          1           0        2.466476   -1.642599   -0.920344
     11          6           0        1.798175   -0.428848    0.721366
     12          1           0        2.150497   -1.216679    1.353893
     13          1           0        2.102997    0.514711    1.123463
     14          6           0        0.261025   -0.481338    0.643820
     15          1           0       -0.147727   -0.434649    1.631565
     16          1           0       -0.041488   -1.394574    0.175432
     17          6           0       -0.252434    0.713349   -0.181215
     18          1           0       -0.195522    0.477833   -1.223421
     19          6           0        0.479733    1.758370    0.067504
     20          1           0        0.906275    1.670597    1.044877
     21          1           0        1.262733    1.826284   -0.658580
     22          1           0       -0.127179    2.638364    0.020932
     23          6           0       -1.715141    1.009054    0.199111
     24          1           0       -2.093581    1.793690   -0.422201
     25          1           0       -1.762933    1.311472    1.224372
     26          6           0       -2.564390   -0.259785   -0.001945
     27          1           0       -2.433953   -0.912701    0.835663
     28          1           0       -2.253153   -0.759401   -0.895486
     29          6           0       -4.049317    0.130161   -0.122499
     30          1           0       -4.341536    0.692487    0.739648
     31          1           0       -4.191895    0.724216   -1.000946
     32          6           0       -4.908461   -1.144219   -0.219591
     33          1           0       -4.771131   -1.734970    0.661916
     34          1           0       -5.939584   -0.873171   -0.310240
     35          1           0       -4.611605   -1.709963   -1.077910
 ---------------------------------------------------------------------

 SCF Done:  E(RHF) =  -428.078761197     A.U. after   11 cycles

 The electronic state is 1-A.
 Alpha  occ. eigenvalues --  -11.15024 -11.14893 -11.14757 -11.14477 -11.14467
 Alpha  occ. eigenvalues --  -11.14446 -11.14406 -11.14073 -11.14014 -11.13397
 Alpha  occ. eigenvalues --  -11.11523  -1.15370  -1.08248  -1.06426  -1.00374
 Alpha  occ. eigenvalues --   -0.97615  -0.92235  -0.87271  -0.84464  -0.79770
 Alpha  occ. eigenvalues --   -0.79571  -0.74688  -0.67421  -0.66094  -0.64190
 Alpha  occ. eigenvalues --   -0.62290  -0.60376  -0.58610  -0.57849  -0.57069
 Alpha  occ. eigenvalues --   -0.56066  -0.54718  -0.52279  -0.51619  -0.51136
 Alpha  occ. eigenvalues --   -0.49282  -0.48768  -0.47173  -0.46901  -0.46234
 Alpha  occ. eigenvalues --   -0.45981  -0.44431  -0.43504  -0.41937  -0.39963
 Alpha virt. eigenvalues --    0.25423   0.26609   0.27635   0.28577   0.29232
 Alpha virt. eigenvalues --    0.30775   0.31398   0.32174   0.33391   0.33628
 Alpha virt. eigenvalues --    0.34221   0.35158   0.35520   0.35782   0.36549

 Mulliken atomic charges:
              1
     1  C   -0.592313
     2  H    0.198386
     3  H    0.208493
     4  H    0.200794
     5  C   -0.434207
     6  H    0.207707
     7  H    0.206229
     8  C   -0.410725
     9  H    0.214103
    10  H    0.208747
    11  C   -0.447681
    12  H    0.214081
    13  H    0.218653
    14  C   -0.381504
    15  H    0.204959
    16  H    0.211210
    17  C   -0.328737
    18  H    0.218787
    19  C   -0.562334
    20  H    0.203456
    21  H    0.208123
    22  H    0.203322
    23  C   -0.369496
    24  H    0.204551
    25  H    0.202850
    26  C   -0.410940
    27  H    0.209401
    28  H    0.205731
    29  C   -0.430241
    30  H    0.205477
    31  H    0.205521
    32  C   -0.588107
    33  H    0.198745
    34  H    0.198254
    35  H    0.198706
 Sum of Mulliken atomic charges =   0.00000

 Dipole moment (field-independent basis, Debye):
    X=              0.0216    Y=             -0.0307    Z=             -0.0247  Tot=              0.0449
 Quadrupole moment (field-independent basis, Debye-Ang):
   XX=            -78.6125   YY=            -76.8986   ZZ=            -74.9935
   XY=             -0.9075   XZ=             -0.3498   YZ=             -0.0120

 Normal termination of Gaussian 09 at Sun Jun 26 00:45:18 2022.
