 Gaussian 09, Revision C.01,
 Gaussian 09:  EM64L-G09RevC.01 23-Sep-2011

 ----------------------------
 # hf/3-21g geom=connectivity
 ----------------------------

 99/5=1,9=1/99;
 -
 b
 -
 Charge =  0 Multiplicity = 1

                         Standard orientation:
 ---------------------------------------------------------------------
 Center     Atomic      Atomic             Coordinates (Angstroms)
 Number     Number       Type             X           Y           Z
 ---------------------------------------------------------------------
      1          6           0       -3.007996   -1.404152   -0.389041
      2          6           0       -1.532483   -1.467387   -0.021733
      3          6           0       -1.153169   -0.142931    0.624795
      4          6           0       -2.357837    0.783036    0.536614
      5          6           0       -3.513120   -0.005714   -0.063207
      6          1           0       -3.151505   -1.630036   -1.475446
      7          1           0       -3.586184   -2.171190    0.185189
      8          1           0       -0.911743   -1.645806   -0.935838
      9          1           0       -1.337664   -2.317218    0.679179
     10          1           0       -0.861954   -0.301298    1.693791
     11          1           0       -2.630533    1.169071    1.550699
     12          1           0       -4.367608   -0.057491    0.657460
     13          1           0       -3.892466    0.498787   -0.987113
     14          6           0       -2.031482    2.005817   -0.340825
     15          1           0       -2.889243    2.642900   -0.398024
     16          1           0       -1.214200    2.545816    0.089699
     17          1           0       -1.764249    1.678329   -1.323800
     18          6           0        0.061806    0.479561   -0.087902
     19          1           0        0.289737    1.425848    0.356495
     20          1           0       -0.164900    0.617658   -1.124451
     21          6           0        1.275019   -0.458649    0.051657
     22          1           0        1.253754   -1.188003   -0.730961
     23          1           0        1.236970   -0.952185    1.000274
     24          6           0        2.573600    0.363188   -0.047699
     25          1           0        2.623467    1.051581    0.769938
     26          1           0        2.583452    0.904376   -0.970693
     27          6           0        3.786229   -0.584650    0.004583
     28          1           0        3.769325   -1.135169    0.921939
     29          1           0        3.743166   -1.264739   -0.820356
     30          6           0        5.085163    0.238667   -0.076148
     31          1           0        5.129903    0.916299    0.750722
     32          1           0        5.927648   -0.420154   -0.043360
     33          1           0        5.100445    0.791902   -0.991898
 ---------------------------------------------------------------------

 SCF Done:  E(RHF) =  -426.966123309     A.U. after   11 cycles

 The electronic state is 1-A.
 Alpha  occ. eigenvalues --  -11.15734 -11.15600 -11.15575 -11.15411 -11.15364
 Alpha  occ. eigenvalues --  -11.14923 -11.14754 -11.14442 -11.14351 -11.14075
 Alpha  occ. eigenvalues --  -11.13716  -1.14042  -1.08319  -1.03174  -1.01054
 Alpha  occ. eigenvalues --   -0.96707  -0.90052  -0.88747  -0.82501  -0.79731
 Alpha  occ. eigenvalues --   -0.75892  -0.72297  -0.67329  -0.65099  -0.62804
 Alpha  occ. eigenvalues --   -0.60674  -0.58900  -0.58243  -0.57464  -0.56074
 Alpha  occ. eigenvalues --   -0.53401  -0.52919  -0.52237  -0.49367  -0.48895
 Alpha  occ. eigenvalues --   -0.47232  -0.46947  -0.46252  -0.45740  -0.45190
 Alpha  occ. eigenvalues --   -0.43522  -0.42773  -0.42213  -0.39922
 Alpha virt. eigenvalues --    0.22711   0.24760   0.26688   0.28939   0.29063
 Alpha virt. eigenvalues --    0.29737   0.31356   0.32140   0.32677   0.33310
 Alpha virt. eigenvalues --    0.34141   0.34629   0.36422   0.36441   0.37096

 Mulliken atomic charges:
              1
     1  C   -0.409079
     2  C   -0.388030
     3  C   -0.252582
     4  C   -0.270674
     5  C   -0.386867
     6  H    0.202452
     7  H    0.203470
     8  H    0.204619
     9  H    0.204457
    10  H    0.207559
    11  H    0.209133
    12  H    0.203235
    13  H    0.203032
    14  C   -0.564294
    15  H    0.198170
    16  H    0.201931
    17  H    0.199068
    18  C   -0.387455
    19  H    0.213129
    20  H    0.210606
    21  C   -0.412476
    22  H    0.207525
    23  H    0.205734
    24  C   -0.401892
    25  H    0.203986
    26  H    0.204323
    27  C   -0.429620
    28  H    0.206389
    29  H    0.206142
    30  C   -0.588746
    31  H    0.198874
    32  H    0.198933
    33  H    0.198949
 Sum of Mulliken atomic charges =   0.00000

 Dipole moment (field-independent basis, Debye):
    X=             -0.0053    Y=             -0.0054    Z=              0.0390  Tot=              0.0397
 Quadrupole moment (field-independent basis, Debye-Ang):
   XX=            -77.1951   YY=            -75.5591   ZZ=            -73.0889
   XY=             -0.1536   XZ=             -0.2006   YZ=              0.1358

 Normal termination of Gaussian 09 at Sat Jun 25 17:14:04 2022.
