 Gaussian 09, Revision C.01,
 Gaussian 09:  EM64L-G09RevC.01 23-Sep-2011

 ----------------------------
 # hf/3-21g geom=connectivity
 ----------------------------

 99/5=1,9=1/99;
 -------------------
 cyclopentanylhexane
 -------------------
 Charge =  0 Multiplicity = 1

                         Standard orientation:
 ---------------------------------------------------------------------
 Center     Atomic      Atomic             Coordinates (Angstroms)
 Number     Number       Type             X           Y           Z
 ---------------------------------------------------------------------
      1          6           0       -3.688666    1.165799   -0.346945
      2          6           0       -2.304195    1.161727    0.284937
      3          6           0       -1.932506   -0.282115    0.590270
      4          6           0       -3.138129   -1.153801    0.269253
      5          6           0       -4.212978   -0.263170   -0.337431
      6          1           0       -4.377024    1.840206    0.221590
      7          1           0       -3.638125    1.555609   -1.394744
      8          1           0       -2.303925    1.770348    1.224256
      9          1           0       -1.555056    1.622973   -0.406068
     10          1           0       -1.640405   -0.394638    1.664267
     11          1           0       -2.854378   -1.968075   -0.443628
     12          1           0       -3.520398   -1.647731    1.197853
     13          1           0       -4.456357   -0.596504   -1.377550
     14          1           0       -5.157641   -0.329737    0.258562
     15          6           0       -0.720246   -0.713049   -0.256088
     16          1           0       -0.475494   -1.731186   -0.036102
     17          1           0       -0.959375   -0.620148   -1.294879
     18          6           0        0.483922    0.187664    0.076022
     19          1           0        0.466205    1.053084   -0.552972
     20          1           0        0.430884    0.490490    1.100904
     21          6           0        1.789922   -0.593026   -0.161650
     22          1           0        1.846028   -1.411762    0.524953
     23          1           0        1.804713   -0.966635   -1.164195
     24          6           0        2.993883    0.342371    0.055399
     25          1           0        2.946583    1.152323   -0.642198
     26          1           0        2.969978    0.728892    1.052861
     27          6           0        4.300325   -0.444257   -0.159134
     28          1           0        4.350389   -1.250677    0.542350
     29          1           0        4.321555   -0.835731   -1.154723
     30          6           0        5.504159    0.493190    0.049624
     31          1           0        6.411903   -0.053678   -0.098145
     32          1           0        5.454801    1.298897   -0.652729
     33          1           0        5.482202    0.885692    1.044792
 ---------------------------------------------------------------------

 SCF Done:  E(RHF) =  -426.975275131     A.U. after   11 cycles

 The electronic state is 1-A.
 Alpha  occ. eigenvalues --  -11.15743 -11.15642 -11.15598 -11.15379 -11.15340
 Alpha  occ. eigenvalues --  -11.14952 -11.14732 -11.14716 -11.14562 -11.14513
 Alpha  occ. eigenvalues --  -11.14081  -1.13143  -1.08844  -1.04607  -0.99172
 Alpha  occ. eigenvalues --   -0.96311  -0.92993  -0.86144  -0.80697  -0.79595
 Alpha  occ. eigenvalues --   -0.75880  -0.74315  -0.66731  -0.65464  -0.63567
 Alpha  occ. eigenvalues --   -0.61448  -0.58989  -0.58333  -0.56365  -0.55058
 Alpha  occ. eigenvalues --   -0.53518  -0.53076  -0.50899  -0.49029  -0.47780
 Alpha  occ. eigenvalues --   -0.47150  -0.46793  -0.46404  -0.46157  -0.45807
 Alpha  occ. eigenvalues --   -0.44457  -0.43179  -0.42647  -0.39410
 Alpha virt. eigenvalues --    0.22951   0.24081   0.26428   0.28517   0.29310
 Alpha virt. eigenvalues --    0.30639   0.31564   0.31767   0.32547   0.32986
 Alpha virt. eigenvalues --    0.33871   0.35391   0.36048   0.36482   0.36797

 Mulliken atomic charges:
              1
     1  C   -0.408241
     2  C   -0.393072
     3  C   -0.272777
     4  C   -0.391887
     5  C   -0.408724
     6  H    0.204395
     7  H    0.202633
     8  H    0.202515
     9  H    0.210718
    10  H    0.207644
    11  H    0.203427
    12  H    0.202069
    13  H    0.203072
    14  H    0.204063
    15  C   -0.376077
    16  H    0.207676
    17  H    0.203313
    18  C   -0.416521
    19  H    0.207470
    20  H    0.208230
    21  C   -0.407580
    22  H    0.205055
    23  H    0.205188
    24  C   -0.403095
    25  H    0.204408
    26  H    0.204760
    27  C   -0.429543
    28  H    0.206101
    29  H    0.206138
    30  C   -0.588354
    31  H    0.198894
    32  H    0.199015
    33  H    0.199087
 Sum of Mulliken atomic charges =   0.00000

 Dipole moment (field-independent basis, Debye):
    X=              0.0168    Y=             -0.0468    Z=              0.0022  Tot=              0.0498
 Quadrupole moment (field-independent basis, Debye-Ang):
   XX=            -77.4548   YY=            -75.2973   ZZ=            -73.0413
   XY=             -0.4603   XZ=             -0.4562   YZ=             -0.2480

 Normal termination of Gaussian 09 at Sat Jun 25 17:02:16 2022.
