 Gaussian 09, Revision C.01,
 Gaussian 09:  EM64L-G09RevC.01 23-Sep-2011

 ----------------------------
 # hf/3-21g geom=connectivity
 ----------------------------

 99/5=1,9=1/99;
 -
 f
 -
 Charge =  0 Multiplicity = 1

                         Standard orientation:
 ---------------------------------------------------------------------
 Center     Atomic      Atomic             Coordinates (Angstroms)
 Number     Number       Type             X           Y           Z
 ---------------------------------------------------------------------
      1          6           0        2.355095    0.000021    0.334335
      2          6           0        1.684705   -1.250569   -0.196841
      3          6           0        0.199898   -1.251506    0.105012
      4          6           0       -0.469435   -0.000561   -0.427597
      5          6           0        0.200469    1.250032    0.104242
      6          6           0        1.685488    1.251232   -0.196021
      7          1           0       -0.276253   -2.156694   -0.353537
      8          1           0        1.839292   -1.313632   -1.306115
      9          1           0        2.161535   -2.155588    0.261643
     10          1           0        2.309970   -0.000350    1.455202
     11          1           0       -0.422509   -0.001007   -1.548375
     12          1           0       -0.276007    2.155027   -0.354561
     13          1           0        0.044682    1.312944    1.213405
     14          1           0        1.841740    1.316208   -1.304943
     15          1           0        2.161069    2.155692    0.264817
     16          1           0        0.044744   -1.313997    1.214153
     17          6           0       -1.956245    0.000153   -0.026356
     18          6           0       -2.073556    0.000347    1.509169
     19          1           0       -3.106600    0.000485    1.787953
     20          1           0       -1.597877   -0.873307    1.903326
     21          1           0       -1.597699    0.873996    1.903120
     22          6           0       -2.641567   -1.256992   -0.593384
     23          1           0       -3.700791   -1.106986   -0.614434
     24          1           0       -2.287324   -1.439088   -1.586486
     25          1           0       -2.412753   -2.098373    0.026795
     26          6           0       -2.640423    1.257818   -0.593613
     27          1           0       -2.330582    1.406035   -1.606989
     28          1           0       -3.702460    1.131890   -0.560154
     29          1           0       -2.363596    2.109360   -0.007830
     30          6           0        3.841355   -0.000253   -0.068942
     31          1           0        4.317841    0.873270    0.324528
     32          1           0        4.317482   -0.874033    0.324391
     33          1           0        3.921401   -0.000185   -1.135943
 ---------------------------------------------------------------------

 SCF Done:  E(RHF) =  -426.988908698     A.U. after   11 cycles

 The electronic state is 1-A.
 Alpha  occ. eigenvalues --  -11.16708 -11.16163 -11.15826 -11.15714 -11.15662
 Alpha  occ. eigenvalues --  -11.15460 -11.15411 -11.13966 -11.13805 -11.13773
 Alpha  occ. eigenvalues --  -11.13661  -1.14664  -1.09704  -1.01672  -1.00550
 Alpha  occ. eigenvalues --   -0.93683  -0.93521  -0.91658  -0.82604  -0.81172
 Alpha  occ. eigenvalues --   -0.74885  -0.71744  -0.64920  -0.63088  -0.61272
 Alpha  occ. eigenvalues --   -0.59976  -0.59578  -0.58864  -0.57438  -0.56444
 Alpha  occ. eigenvalues --   -0.53830  -0.53551  -0.52577  -0.51727  -0.51117
 Alpha  occ. eigenvalues --   -0.48706  -0.47432  -0.46877  -0.45712  -0.44498
 Alpha  occ. eigenvalues --   -0.44309  -0.42459  -0.40212  -0.39775
 Alpha virt. eigenvalues --    0.24833   0.25647   0.26422   0.29403   0.30914
 Alpha virt. eigenvalues --    0.31232   0.31721   0.31801   0.32570   0.34010
 Alpha virt. eigenvalues --    0.34199   0.34315   0.36181   0.36332   0.36888

 Mulliken atomic charges:
              1
     1  C   -0.292601
     2  C   -0.356625
     3  C   -0.382888
     4  C   -0.220023
     5  C   -0.383129
     6  C   -0.356609
     7  H    0.206846
     8  H    0.188049
     9  H    0.194605
    10  H    0.198796
    11  H    0.197523
    12  H    0.206782
    13  H    0.199790
    14  H    0.188076
    15  H    0.194641
    16  H    0.199775
    17  C   -0.211522
    18  C   -0.541120
    19  H    0.200840
    20  H    0.201702
    21  H    0.201652
    22  C   -0.535723
    23  H    0.197795
    24  H    0.197758
    25  H    0.200753
    26  C   -0.533700
    27  H    0.197325
    28  H    0.197176
    29  H    0.200708
    30  C   -0.549946
    31  H    0.198080
    32  H    0.198076
    33  H    0.197138
 Sum of Mulliken atomic charges =   0.00000

 Dipole moment (field-independent basis, Debye):
    X=             -0.0538    Y=              0.0004    Z=              0.0605  Tot=              0.0809
 Quadrupole moment (field-independent basis, Debye-Ang):
   XX=            -76.5616   YY=            -75.2215   ZZ=            -74.4634
   XY=              0.0022   XZ=              0.3035   YZ=             -0.0037

 Normal termination of Gaussian 09 at Wed Jun 29 17:23:08 2022.
