 Gaussian 09, Revision C.01,
 Gaussian 09:  EM64L-G09RevC.01 23-Sep-2011

 ----------------------------
 # hf/3-21g geom=connectivity
 ----------------------------

 99/5=1,9=1/99;
 -
 g
 -
 Charge =  0 Multiplicity = 1

                         Standard orientation:
 ---------------------------------------------------------------------
 Center     Atomic      Atomic             Coordinates (Angstroms)
 Number     Number       Type             X           Y           Z
 ---------------------------------------------------------------------
      1          6           0       -1.347772    1.901283    0.029508
      2          6           0       -1.452661    0.650115    0.877520
      3          6           0       -0.506887   -0.428340    0.389446
      4          6           0        0.920208    0.078167    0.331209
      5          6           0        1.025211    1.328887   -0.517483
      6          6           0        0.078892    2.407403   -0.030940
      7          1           0       -1.212195    0.901622    1.943955
      8          1           0       -2.505498    0.266091    0.851223
      9          1           0       -1.708715    1.678923   -1.009075
     10          1           0       -2.011603    2.698951    0.453227
     11          1           0        1.279344    0.301183    1.370263
     12          1           0        2.077895    1.713195   -0.490834
     13          1           0        0.785542    1.076465   -1.583932
     14          1           0        0.396480    2.749915    0.988947
     15          1           0        0.134450    3.292817   -0.716178
     16          6           0       -0.584380   -1.646618    1.328272
     17          1           0       -1.588619   -2.015173    1.352177
     18          1           0        0.069020   -2.414722    0.970523
     19          1           0       -0.287384   -1.356425    2.314416
     20          6           0       -0.942000   -0.895200   -1.012095
     21          1           0       -0.284903   -1.669011   -1.350235
     22          1           0       -0.900595   -0.069844   -1.691782
     23          6           0       -2.382436   -1.436244   -0.948728
     24          1           0       -3.001672   -0.881748   -1.622510
     25          1           0       -2.387985   -2.469306   -1.227392
     26          1           0       -2.758474   -1.333599    0.047745
     27          6           0        1.833592   -1.017441   -0.249283
     28          1           0        1.671302   -1.933831    0.278725
     29          1           0        1.607584   -1.158095   -1.285641
     30          6           0        3.305834   -0.591699   -0.098133
     31          1           0        3.930462   -1.460451   -0.101261
     32          1           0        3.578075    0.046265   -0.912864
     33          1           0        3.431886   -0.065103    0.824748
 ---------------------------------------------------------------------

 SCF Done:  E(RHF) =  -426.973201868     A.U. after   11 cycles

 The electronic state is 1-A.
 Alpha  occ. eigenvalues --  -11.16147 -11.15869 -11.15807 -11.15735 -11.15609
 Alpha  occ. eigenvalues --  -11.15446 -11.14578 -11.14384 -11.13972 -11.13743
 Alpha  occ. eigenvalues --  -11.13596  -1.15508  -1.06184  -1.05687  -0.98934
 Alpha  occ. eigenvalues --   -0.97708  -0.92156  -0.86583  -0.85658  -0.79180
 Alpha  occ. eigenvalues --   -0.78080  -0.70574  -0.65506  -0.64094  -0.62767
 Alpha  occ. eigenvalues --   -0.61579  -0.58972  -0.58643  -0.56783  -0.56670
 Alpha  occ. eigenvalues --   -0.53348  -0.52555  -0.51591  -0.51071  -0.49009
 Alpha  occ. eigenvalues --   -0.48559  -0.48053  -0.47626  -0.46605  -0.46447
 Alpha  occ. eigenvalues --   -0.44200  -0.41388  -0.39982  -0.39682
 Alpha virt. eigenvalues --    0.24981   0.25680   0.27593   0.28189   0.29228
 Alpha virt. eigenvalues --    0.30164   0.31455   0.31778   0.33213   0.33691
 Alpha virt. eigenvalues --    0.35008   0.35360   0.36117   0.36477   0.37084

 Mulliken atomic charges:
              1
     1  C   -0.398283
     2  C   -0.336770
     3  C   -0.226223
     4  C   -0.210931
     5  C   -0.373970
     6  C   -0.388806
     7  H    0.191226
     8  H    0.203796
     9  H    0.194281
    10  H    0.198549
    11  H    0.195744
    12  H    0.207548
    13  H    0.192033
    14  H    0.191301
    15  H    0.195823
    16  C   -0.525981
    17  H    0.205531
    18  H    0.200820
    19  H    0.196659
    20  C   -0.382832
    21  H    0.220735
    22  H    0.218155
    23  C   -0.606059
    24  H    0.201932
    25  H    0.204180
    26  H    0.205135
    27  C   -0.415756
    28  H    0.219414
    29  H    0.212525
    30  C   -0.592348
    31  H    0.200206
    32  H    0.202861
    33  H    0.199506
 Sum of Mulliken atomic charges =   0.00000

 Dipole moment (field-independent basis, Debye):
    X=              0.0417    Y=             -0.0749    Z=             -0.0845  Tot=              0.1204
 Quadrupole moment (field-independent basis, Debye-Ang):
   XX=            -76.4146   YY=            -75.2179   ZZ=            -74.4671
   XY=             -0.3602   XZ=              0.0419   YZ=              0.1565

 Normal termination of Gaussian 09 at Wed Jun 29 17:38:47 2022.
