 Gaussian 09, Revision C.01,
 Gaussian 09:  EM64L-G09RevC.01 23-Sep-2011

 ----------------------------
 # hf/3-21g geom=connectivity
 ----------------------------

 99/5=1,9=1/99;
 -----
 mol_6
 -----
 Charge =  0 Multiplicity = 1

                         Standard orientation:
 ---------------------------------------------------------------------
 Center     Atomic      Atomic             Coordinates (Angstroms)
 Number     Number       Type             X           Y           Z
 ---------------------------------------------------------------------
      1          6           0       -0.469707    0.000221   -0.428406
      2          6           0        0.200539   -1.250351    0.102994
      3          6           0        1.685460   -1.251215   -0.198302
      4          6           0        2.354537   -0.000252    0.334586
      5          6           0        1.684778    1.250323   -0.197476
      6          6           0        0.199646    1.251450    0.102229
      7          1           0        2.161479   -2.156392    0.260406
      8          1           0        0.045539   -1.313445    1.212209
      9          1           0       -0.276078   -2.155381   -0.355689
     10          1           0       -0.424161   -0.000123   -1.549255
     11          1           0        2.307190   -0.000725    1.455347
     12          1           0        2.161040    2.155329    0.261526
     13          1           0        1.840978    1.313266   -1.306579
     14          1           0        0.042974    1.316395    1.211094
     15          1           0       -0.275802    2.155899   -0.358768
     16          1           0        1.841033   -1.313674   -1.307385
     17          6           0       -1.956118   -0.000127   -0.025687
     18          6           0       -2.641123   -1.257720   -0.592103
     19          1           0       -2.457835   -2.087289    0.058374
     20          1           0       -3.695005   -1.087634   -0.664929
     21          1           0       -2.246475   -1.472019   -1.563303
     22          6           0       -2.071902   -0.000100    1.509954
     23          1           0       -1.612757    0.883190    1.902236
     24          1           0       -3.104478   -0.019689    1.789779
     25          1           0       -1.578917   -0.863783    1.904819
     26          6           0       -2.641738    1.257090   -0.592194
     27          1           0       -2.335546    1.403727   -1.606908
     28          1           0       -3.703708    1.131751   -0.554659
     29          1           0       -2.362332    2.109312   -0.008628
     30          6           0        3.841498    0.000537   -0.066096
     31          1           0        4.316681    0.874381    0.328235
     32          1           0        4.317554   -0.872922    0.328037
     33          1           0        3.923406    0.000699   -1.132956
 ---------------------------------------------------------------------

 SCF Done:  E(RHF) =  -426.988483087     A.U. after   11 cycles

 The electronic state is 1-A.
 Alpha  occ. eigenvalues --  -11.16701 -11.16166 -11.15824 -11.15715 -11.15663
 Alpha  occ. eigenvalues --  -11.15458 -11.15409 -11.13966 -11.13801 -11.13767
 Alpha  occ. eigenvalues --  -11.13662  -1.14666  -1.09703  -1.01673  -1.00549
 Alpha  occ. eigenvalues --   -0.93688  -0.93518  -0.91662  -0.82601  -0.81166
 Alpha  occ. eigenvalues --   -0.74887  -0.71749  -0.64921  -0.63079  -0.61286
 Alpha  occ. eigenvalues --   -0.59946  -0.59564  -0.58873  -0.57465  -0.56469
 Alpha  occ. eigenvalues --   -0.53844  -0.53557  -0.52536  -0.51722  -0.51110
 Alpha  occ. eigenvalues --   -0.48703  -0.47429  -0.46865  -0.45715  -0.44494
 Alpha  occ. eigenvalues --   -0.44318  -0.42448  -0.40222  -0.39773
 Alpha virt. eigenvalues --    0.24842   0.25649   0.26427   0.29402   0.30961
 Alpha virt. eigenvalues --    0.31168   0.31732   0.31811   0.32582   0.33998
 Alpha virt. eigenvalues --    0.34157   0.34350   0.36035   0.36336   0.36883

 Mulliken atomic charges:
              1
     1  C   -0.220780
     2  C   -0.382494
     3  C   -0.356820
     4  C   -0.292563
     5  C   -0.356592
     6  C   -0.383135
     7  H    0.194714
     8  H    0.199744
     9  H    0.206836
    10  H    0.197484
    11  H    0.198796
    12  H    0.194586
    13  H    0.188058
    14  H    0.199906
    15  H    0.206750
    16  H    0.188040
    17  C   -0.209444
    18  C   -0.538220
    19  H    0.200973
    20  H    0.198281
    21  H    0.198314
    22  C   -0.541360
    23  H    0.201146
    24  H    0.200941
    25  H    0.202033
    26  C   -0.533490
    27  H    0.197393
    28  H    0.197018
    29  H    0.200572
    30  C   -0.549982
    31  H    0.198079
    32  H    0.198073
    33  H    0.197140
 Sum of Mulliken atomic charges =   0.00000

 Dipole moment (field-independent basis, Debye):
    X=             -0.0554    Y=             -0.0006    Z=              0.0598  Tot=              0.0815
 Quadrupole moment (field-independent basis, Debye-Ang):
   XX=            -76.5512   YY=            -75.2297   ZZ=            -74.4611
   XY=             -0.0038   XZ=              0.3040   YZ=             -0.0099

 Normal termination of Gaussian 09 at Sun Jun 26 00:39:12 2022.
