 Gaussian 09, Revision C.01,
 Gaussian 09:  EM64L-G09RevC.01 23-Sep-2011

 ----------------------------
 # hf/3-21g geom=connectivity
 ----------------------------

 99/5=1,9=1/99;
 -----
 mol_3
 -----
 Charge =  0 Multiplicity = 1

                         Standard orientation:
 ---------------------------------------------------------------------
 Center     Atomic      Atomic             Coordinates (Angstroms)
 Number     Number       Type             X           Y           Z
 ---------------------------------------------------------------------
      1          6           0        0.835648   -1.200810   -0.364044
      2          6           0        1.698989    0.020619   -0.124598
      3          6           0        1.004883    1.326411   -0.443739
      4          6           0       -0.225213   -1.385590    0.701055
      5          6           0       -0.295456    1.522742    0.308074
      6          6           0       -1.538722   -0.695835    0.399806
      7          6           0       -1.422193    0.671502   -0.239405
      8          1           0        0.355966   -1.134650   -1.375284
      9          1           0        0.809663    1.383966   -1.547641
     10          1           0       -0.142065    1.301679    1.396489
     11          1           0        0.169748   -1.017104    1.685598
     12          1           0       -2.112776   -0.603654    1.361011
     13          1           0        1.500565   -2.106049   -0.370278
     14          1           0        1.700910    2.169909   -0.187469
     15          1           0       -0.428722   -2.483387    0.826188
     16          1           0       -0.589260    2.603826    0.226746
     17          1           0       -1.291674    0.552383   -1.348445
     18          6           0        2.961058   -0.086056   -1.000614
     19          1           0        3.574289    0.777632   -0.849315
     20          1           0        3.509291   -0.964437   -0.730821
     21          1           0        2.676485   -0.145481   -2.030365
     22          6           0        2.166836    0.036540    1.342530
     23          1           0        2.505190   -0.940006    1.619613
     24          1           0        2.968365    0.736602    1.453718
     25          1           0        1.352014    0.324085    1.973627
     26          6           0       -2.755804    1.412329   -0.029034
     27          1           0       -2.743573    2.331347   -0.576900
     28          1           0       -3.562187    0.800754   -0.376341
     29          1           0       -2.888253    1.619617    1.012306
     30          6           0       -2.373770   -1.590709   -0.534805
     31          1           0       -2.133721   -2.617595   -0.353751
     32          1           0       -3.414718   -1.429290   -0.346998
     33          1           0       -2.153067   -1.347003   -1.553037
 ---------------------------------------------------------------------

 SCF Done:  E(RHF) =  -426.972095292     A.U. after   11 cycles

 The electronic state is 1-A.
 Alpha  occ. eigenvalues --  -11.16478 -11.15955 -11.15868 -11.15641 -11.15581
 Alpha  occ. eigenvalues --  -11.15534 -11.15197 -11.13985 -11.13817 -11.13754
 Alpha  occ. eigenvalues --  -11.13744  -1.14616  -1.09443  -1.04290  -0.97520
 Alpha  occ. eigenvalues --   -0.96065  -0.93599  -0.88684  -0.84778  -0.82400
 Alpha  occ. eigenvalues --   -0.73986  -0.70822  -0.64797  -0.64135  -0.62948
 Alpha  occ. eigenvalues --   -0.61406  -0.58531  -0.57253  -0.56385  -0.56252
 Alpha  occ. eigenvalues --   -0.54263  -0.53167  -0.52550  -0.51837  -0.50702
 Alpha  occ. eigenvalues --   -0.49522  -0.49172  -0.47308  -0.43704  -0.43259
 Alpha  occ. eigenvalues --   -0.42818  -0.41756  -0.41585  -0.41293
 Alpha virt. eigenvalues --    0.23974   0.24551   0.26924   0.28305   0.29644
 Alpha virt. eigenvalues --    0.30104   0.31364   0.31947   0.33254   0.33962
 Alpha virt. eigenvalues --    0.34033   0.35304   0.35946   0.37000   0.37335

 Mulliken atomic charges:
              1
     1  C   -0.348929
     2  C   -0.238322
     3  C   -0.319668
     4  C   -0.386359
     5  C   -0.390370
     6  C   -0.252973
     7  C   -0.264467
     8  H    0.196057
     9  H    0.189025
    10  H    0.199032
    11  H    0.208296
    12  H    0.201066
    13  H    0.196442
    14  H    0.190490
    15  H    0.194706
    16  H    0.199333
    17  H    0.200641
    18  C   -0.511999
    19  H    0.194992
    20  H    0.195230
    21  H    0.195285
    22  C   -0.535932
    23  H    0.200668
    24  H    0.199665
    25  H    0.201253
    26  C   -0.553799
    27  H    0.197560
    28  H    0.204280
    29  H    0.197903
    30  C   -0.560252
    31  H    0.200237
    32  H    0.203232
    33  H    0.197675
 Sum of Mulliken atomic charges =   0.00000

 Dipole moment (field-independent basis, Debye):
    X=             -0.0108    Y=              0.0234    Z=              0.0586  Tot=              0.0641
 Quadrupole moment (field-independent basis, Debye-Ang):
   XX=            -76.1570   YY=            -75.0646   ZZ=            -74.9582
   XY=             -0.0559   XZ=              0.0998   YZ=             -0.2414

 Normal termination of Gaussian 09 at Sun Jun 26 00:29:10 2022.
