 Gaussian 09, Revision C.01,
 Gaussian 09:  EM64L-G09RevC.01 23-Sep-2011

 ----------------------------
 # hf/3-21g geom=connectivity
 ----------------------------

 99/5=1,9=1/99;
 -----
 mol_4
 -----
 Charge =  0 Multiplicity = 1

                         Standard orientation:
 ---------------------------------------------------------------------
 Center     Atomic      Atomic             Coordinates (Angstroms)
 Number     Number       Type             X           Y           Z
 ---------------------------------------------------------------------
      1          6           0       -3.269849    0.011778   -0.011607
      2          6           0       -1.891554   -0.581547   -0.051788
      3          6           0       -2.739311   -0.735150    1.177451
      4          1           0       -1.705560   -1.463834   -0.688985
      5          1           0       -3.159568   -1.727199    1.418967
      6          1           0       -2.470616   -0.172099    2.088432
      7          6           0       -3.423897    1.541702    0.073250
      8          1           0       -3.379322    1.959779   -0.910683
      9          1           0       -4.366188    1.781052    0.520128
     10          1           0       -2.633215    1.947274    0.669264
     11          6           0       -4.384735   -0.627098   -0.860410
     12          1           0       -5.336177   -0.408394   -0.422431
     13          1           0       -4.349289   -0.229653   -1.853224
     14          1           0       -4.243368   -1.687144   -0.895327
     15          6           0       -0.671242    0.356759   -0.006840
     16          1           0       -0.692935    1.010902   -0.853318
     17          1           0       -0.699643    0.936003    0.892365
     18          6           0        0.621169   -0.480092   -0.037778
     19          1           0        0.644188   -1.067846   -0.931599
     20          1           0        0.648234   -1.126160    0.814726
     21          6           0        1.841494    0.458840   -0.009252
     22          1           0        1.808796    1.112055   -0.856094
     23          1           0        1.824165    1.039045    0.889615
     24          6           0        3.133818   -0.377430   -0.055604
     25          1           0        3.147933   -0.962783   -0.951184
     26          1           0        3.169802   -1.025766    0.794846
     27          6           0        4.354037    0.561888   -0.037004
     28          1           0        4.339786    1.147419    0.858457
     29          1           0        4.318186    1.210055   -0.887589
     30          6           0        5.646367   -0.274395   -0.082992
     31          1           0        5.660204   -0.860587   -0.978026
     32          1           0        6.494170    0.378280   -0.070956
     33          1           0        5.682642   -0.921932    0.768055
 ---------------------------------------------------------------------

 SCF Done:  E(RHF) =  -426.949283949     A.U. after   11 cycles

 The electronic state is 1-A.
 Alpha  occ. eigenvalues --  -11.17534 -11.16540 -11.16039 -11.15109 -11.14992
 Alpha  occ. eigenvalues --  -11.14809 -11.14791 -11.14756 -11.14567 -11.14524
 Alpha  occ. eigenvalues --  -11.14107  -1.16310  -1.09027  -1.04390  -0.98770
 Alpha  occ. eigenvalues --   -0.95893  -0.93689  -0.88009  -0.80998  -0.79583
 Alpha  occ. eigenvalues --   -0.77878  -0.72303  -0.66670  -0.64195  -0.61903
 Alpha  occ. eigenvalues --   -0.61615  -0.59269  -0.58644  -0.56907  -0.55500
 Alpha  occ. eigenvalues --   -0.54497  -0.53758  -0.52652  -0.51949  -0.50926
 Alpha  occ. eigenvalues --   -0.49051  -0.47723  -0.47279  -0.46756  -0.46012
 Alpha  occ. eigenvalues --   -0.44956  -0.42410  -0.39275  -0.37083
 Alpha virt. eigenvalues --    0.26087   0.26553   0.27115   0.28431   0.29454
 Alpha virt. eigenvalues --    0.30632   0.31760   0.32041   0.32356   0.33647
 Alpha virt. eigenvalues --    0.34134   0.35099   0.35564   0.36114   0.37544

 Mulliken atomic charges:
              1
     1  C   -0.167747
     2  C   -0.251052
     3  C   -0.355788
     4  H    0.212469
     5  H    0.208297
     6  H    0.204950
     7  C   -0.554616
     8  H    0.201984
     9  H    0.205294
    10  H    0.202977
    11  C   -0.546013
    12  H    0.202574
    13  H    0.202231
    14  H    0.197333
    15  C   -0.388025
    16  H    0.211588
    17  H    0.206432
    18  C   -0.408685
    19  H    0.203990
    20  H    0.212598
    21  C   -0.410317
    22  H    0.205311
    23  H    0.204951
    24  C   -0.403214
    25  H    0.204827
    26  H    0.205348
    27  C   -0.429311
    28  H    0.206301
    29  H    0.206310
    30  C   -0.588493
    31  H    0.199154
    32  H    0.199079
    33  H    0.199263
 Sum of Mulliken atomic charges =   0.00000

 Dipole moment (field-independent basis, Debye):
    X=              0.0120    Y=              0.1022    Z=             -0.0829  Tot=              0.1321
 Quadrupole moment (field-independent basis, Debye-Ang):
   XX=            -76.6321   YY=            -74.1528   ZZ=            -73.3791
   XY=              0.3284   XZ=              0.3450   YZ=              0.4493

 Normal termination of Gaussian 09 at Sun Jun 26 00:32:46 2022.
