 Gaussian 09, Revision C.01,
 Gaussian 09:  EM64L-G09RevC.01 23-Sep-2011

 ----------------------------
 # hf/3-21g geom=connectivity
 ----------------------------

 99/5=1,9=1/99;
 -----
 mol_2
 -----
 Charge =  0 Multiplicity = 1

                         Standard orientation:
 ---------------------------------------------------------------------
 Center     Atomic      Atomic             Coordinates (Angstroms)
 Number     Number       Type             X           Y           Z
 ---------------------------------------------------------------------
      1          6           0        3.493637   -0.017778   -0.131628
      2          6           0        2.980976   -1.428183   -0.384592
      3          6           0        1.514280   -1.473252    0.018933
      4          6           0        1.158837   -0.131125    0.642449
      5          6           0        2.373410    0.778316    0.522796
      6          1           0        4.396174   -0.041434    0.529251
      7          1           0        3.803276    0.463136   -1.093519
      8          1           0        3.571290   -2.169019    0.211589
      9          1           0        3.100967   -1.702948   -1.462345
     10          1           0        0.870679   -1.669039   -0.875541
     11          1           0        1.331025   -2.304959    0.744285
     12          1           0        0.875888   -0.263235    1.717102
     13          1           0        2.689805    1.142310    1.532464
     14          6           0       -0.054983    0.491263   -0.072304
     15          1           0       -0.288049    1.434340    0.376234
     16          1           0        0.175919    0.635794   -1.107048
     17          6           0       -1.265690   -0.451690    0.056641
     18          1           0       -1.242556   -1.172037   -0.734223
     19          1           0       -1.226251   -0.955881    0.999581
     20          6           0       -2.566456    0.367774   -0.033289
     21          1           0       -2.568476    0.935296   -0.940380
     22          1           0       -2.628022    1.032124    0.803221
     23          6           0       -3.775704   -0.585737   -0.021635
     24          1           0       -3.723202   -1.238708   -0.867668
     25          1           0       -3.764120   -1.165484    0.877620
     26          6           0       -5.077189    0.234945   -0.086580
     27          1           0       -5.917233   -0.427792   -0.084405
     28          1           0       -5.132507    0.883693    0.762518
     29          1           0       -5.086106    0.819150   -0.982976
     30          6           0        2.034476    2.021523   -0.320508
     31          1           0        1.259326    2.579349    0.162060
     32          1           0        2.906220    2.634084   -0.419157
     33          1           0        1.702389    1.714921   -1.290361
 ---------------------------------------------------------------------

 SCF Done:  E(RHF) =  -426.965624491     A.U. after   11 cycles

 The electronic state is 1-A.
 Alpha  occ. eigenvalues --  -11.15736 -11.15591 -11.15568 -11.15396 -11.15359
 Alpha  occ. eigenvalues --  -11.14920 -11.14750 -11.14437 -11.14343 -11.14073
 Alpha  occ. eigenvalues --  -11.13724  -1.14042  -1.08313  -1.03166  -1.01085
 Alpha  occ. eigenvalues --   -0.96693  -0.90038  -0.88727  -0.82535  -0.79746
 Alpha  occ. eigenvalues --   -0.75895  -0.72271  -0.67322  -0.65087  -0.62761
 Alpha  occ. eigenvalues --   -0.60675  -0.58815  -0.58270  -0.57625  -0.56113
 Alpha  occ. eigenvalues --   -0.53398  -0.52911  -0.52177  -0.49383  -0.48901
 Alpha  occ. eigenvalues --   -0.47208  -0.46966  -0.46221  -0.45763  -0.45132
 Alpha  occ. eigenvalues --   -0.43542  -0.42781  -0.42197  -0.39899
 Alpha virt. eigenvalues --    0.22691   0.24836   0.26700   0.28915   0.29073
 Alpha virt. eigenvalues --    0.29728   0.31307   0.32216   0.32625   0.33279
 Alpha virt. eigenvalues --    0.34156   0.34508   0.36376   0.36484   0.37174

 Mulliken atomic charges:
              1
     1  C   -0.386741
     2  C   -0.409042
     3  C   -0.388403
     4  C   -0.253627
     5  C   -0.270155
     6  H    0.203665
     7  H    0.202504
     8  H    0.202984
     9  H    0.202544
    10  H    0.205618
    11  H    0.204264
    12  H    0.207551
    13  H    0.209200
    14  C   -0.386760
    15  H    0.213233
    16  H    0.210676
    17  C   -0.413062
    18  H    0.207480
    19  H    0.206065
    20  C   -0.401991
    21  H    0.204278
    22  H    0.204081
    23  C   -0.429592
    24  H    0.206079
    25  H    0.206399
    26  C   -0.588765
    27  H    0.198915
    28  H    0.198879
    29  H    0.198932
    30  C   -0.564479
    31  H    0.201413
    32  H    0.198184
    33  H    0.199672
 Sum of Mulliken atomic charges =   0.00000

 Dipole moment (field-independent basis, Debye):
    X=              0.0067    Y=             -0.0022    Z=              0.0388  Tot=              0.0394
 Quadrupole moment (field-independent basis, Debye-Ang):
   XX=            -77.1772   YY=            -75.6047   ZZ=            -73.0693
   XY=              0.1651   XZ=              0.2298   YZ=              0.1395

 Normal termination of Gaussian 09 at Sun Jun 26 00:25:38 2022.
