 Gaussian 09, Revision C.01,
 Gaussian 09:  EM64L-G09RevC.01 23-Sep-2011

 ----------------------------
 # hf/3-21g geom=connectivity
 ----------------------------

 99/5=1,9=1/99;
 -----
 mol_9
 -----
 Charge =  0 Multiplicity = 1

                         Standard orientation:
 ---------------------------------------------------------------------
 Center     Atomic      Atomic             Coordinates (Angstroms)
 Number     Number       Type             X           Y           Z
 ---------------------------------------------------------------------
      1          6           0       -2.213118    0.360356    0.192416
      2          1           0       -1.890590    1.348505   -0.061429
      3          6           0       -2.556556   -0.413813   -1.093785
      4          1           0       -1.689878   -0.469323   -1.718836
      5          1           0       -2.877236   -1.402592   -0.840054
      6          1           0       -3.341175    0.092580   -1.616124
      7          6           0       -3.461230    0.442659    1.090771
      8          1           0       -3.783979   -0.545497    1.344311
      9          1           0       -3.222509    0.980233    1.984598
     10          1           0       -4.244398    0.950425    0.567587
     11          6           0       -1.239497   -0.270383    0.842901
     12          1           0       -1.000702    0.267650    1.736432
     13          1           0       -1.562117   -1.258445    1.096969
     14          6           0        0.008497   -0.353007   -0.055589
     15          1           0        0.084473    0.537900   -0.643307
     16          6           0       -0.109360   -1.573835   -0.986871
     17          1           0       -0.349076   -1.245569   -1.976658
     18          1           0        0.820996   -2.102146   -1.001838
     19          1           0       -0.881889   -2.222029   -0.629177
     20          6           0        1.264998   -0.497041    0.823079
     21          1           0        1.359895    0.362393    1.453371
     22          1           0        1.178344   -1.375269    1.428147
     23          6           0        0.687688    0.734788   -0.430165
     24          1           0        0.449066    0.196892   -1.323824
     25          1           0        1.470977    0.227352    0.093158
     26          1           0       -0.179507    0.791973    0.194017
     27          6           0        1.151887    2.156984   -0.795512
     28          1           0        0.368598    2.664420   -1.318835
     29          1           0        1.390508    2.694881    0.098147
     30          1           0        2.019082    2.099799   -1.419693
     31          6           0        2.509638   -0.614027   -0.076246
     32          1           0        2.648233   -1.635729   -0.362284
     33          1           0        2.374834   -0.013706   -0.951656
     34          6           0        3.748820   -0.124542    0.696043
     35          1           0        3.824476   -0.655112    1.622148
     36          1           0        4.626838   -0.301716    0.110727
     37          1           0        3.656137    0.923300    0.891843
 ---------------------------------------------------------------------

 SCF Done:  E(RHF) =  -427.639692319     A.U. after   26 cycles

 The electronic state is 1-A.
 Alpha  occ. eigenvalues --  -11.21126 -11.20077 -11.18921 -11.17420 -11.17193
 Alpha  occ. eigenvalues --  -11.14683 -11.14242 -11.14204 -11.13222 -11.13165
 Alpha  occ. eigenvalues --  -11.11545  -1.51948  -1.22408  -1.14860  -1.02739
 Alpha  occ. eigenvalues --   -1.00408  -0.97849  -0.94586  -0.93064  -0.87580
 Alpha  occ. eigenvalues --   -0.82247  -0.78638  -0.76492  -0.73641  -0.67253
 Alpha  occ. eigenvalues --   -0.65675  -0.63071  -0.60813  -0.60454  -0.58923
 Alpha  occ. eigenvalues --   -0.56444  -0.55392  -0.54604  -0.54465  -0.53249
 Alpha  occ. eigenvalues --   -0.53232  -0.52859  -0.51194  -0.50519  -0.49996
 Alpha  occ. eigenvalues --   -0.47875  -0.45673  -0.44315  -0.39532  -0.35237
 Alpha  occ. eigenvalues --   -0.08009
 Alpha virt. eigenvalues --    0.17794   0.24409   0.24981   0.26811   0.27975
 Alpha virt. eigenvalues --    0.29635   0.30530   0.31033   0.32103   0.33191
 Alpha virt. eigenvalues --    0.33755   0.33859   0.35021   0.35132   0.36536

 Mulliken atomic charges:
              1
     1  C   -0.393246
     2  H    0.248122
     3  C   -0.559378
     4  H    0.217999
     5  H    0.190719
     6  H    0.200055
     7  C   -0.543095
     8  H    0.193456
     9  H    0.199428
    10  H    0.202210
    11  C   -0.320549
    12  H    0.243716
    13  H    0.219371
    14  C   -0.405520
    15  H    0.333808
    16  C   -0.619846
    17  H    0.246386
    18  H    0.205659
    19  H    0.212593
    20  C   -0.578361
    21  H    0.299490
    22  H    0.226931
    23  C   -0.365632
    24  H   -0.268741
    25  H    0.646460
    26  H   -0.088834
    27  C   -0.481470
    28  H    0.184758
    29  H    0.152848
    30  H    0.151439
    31  C   -0.632111
    32  H    0.262086
    33  H    0.340606
    34  C   -0.585596
    35  H    0.217264
    36  H    0.228190
    37  H    0.218782
 Sum of Mulliken atomic charges =   0.00000

 Dipole moment (field-independent basis, Debye):
    X=              1.2349    Y=             -1.4072    Z=              1.9680  Tot=              2.7163
 Quadrupole moment (field-independent basis, Debye-Ang):
   XX=            -72.9723   YY=            -81.7593   ZZ=            -82.2068
   XY=             -1.5453   XZ=              2.1085   YZ=             -0.1052

 Normal termination of Gaussian 09 at Sun Jun 26 00:49:12 2022.
