 Gaussian 09, Revision C.01,
 Gaussian 09:  EM64L-G09RevC.01 23-Sep-2011

 ----------------------------
 # hf/3-21g geom=connectivity
 ----------------------------

 99/5=1,9=1/99;
 -----
 mol_5
 -----
 Charge =  0 Multiplicity = 1

                         Standard orientation:
 ---------------------------------------------------------------------
 Center     Atomic      Atomic             Coordinates (Angstroms)
 Number     Number       Type             X           Y           Z
 ---------------------------------------------------------------------
      1          6           0       -1.107923    0.128132   -0.313057
      2          6           0       -1.419077   -1.355029   -0.452580
      3          6           0       -2.848385   -1.580529    0.018896
      4          6           0       -3.372477   -0.262784    0.571429
      5          6           0       -2.307836    0.799923    0.339516
      6          1           0       -0.905827    0.580427   -1.316539
      7          1           0       -0.706618   -1.961087    0.162105
      8          1           0       -1.298918   -1.683920   -1.515048
      9          1           0       -3.488180   -1.927528   -0.831336
     10          1           0       -2.883014   -2.377572    0.803101
     11          1           0       -4.328548    0.022047    0.064918
     12          1           0       -3.594806   -0.359062    1.663991
     13          1           0       -2.011890    1.274369    1.308713
     14          6           0        0.157464    0.336008    0.539694
     15          1           0        0.358633    1.383035    0.630058
     16          1           0        0.004943   -0.083121    1.512302
     17          6           0        1.352835   -0.359818   -0.137443
     18          1           0        1.387886   -1.385052    0.166806
     19          1           0        1.241132   -0.306803   -1.200275
     20          6           0        2.658526    0.343624    0.277214
     21          1           0        2.658230    1.345872   -0.097484
     22          1           0        2.730342    0.361934    1.344644
     23          6           0        3.861281   -0.421776   -0.305147
     24          1           0        3.871344   -1.418864    0.082944
     25          1           0        3.780507   -0.454924   -1.371578
     26          6           0        5.165807    0.295593    0.088798
     27          1           0        5.243720    0.333922    1.155269
     28          1           0        6.001786   -0.239464   -0.310893
     29          1           0        5.158306    1.290754   -0.304267
     30          6           0       -2.853469    1.920695   -0.564782
     31          1           0       -3.764382    2.300699   -0.151582
     32          1           0       -2.133893    2.710069   -0.628016
     33          1           0       -3.041241    1.530034   -1.543059
 ---------------------------------------------------------------------

 SCF Done:  E(RHF) =  -426.977173532     A.U. after   11 cycles

 The electronic state is 1-A.
 Alpha  occ. eigenvalues --  -11.15682 -11.15586 -11.15529 -11.15387 -11.15349
 Alpha  occ. eigenvalues --  -11.14946 -11.14793 -11.14598 -11.14541 -11.14089
 Alpha  occ. eigenvalues --  -11.14025  -1.13822  -1.08408  -1.03227  -1.00883
 Alpha  occ. eigenvalues --   -0.96721  -0.91038  -0.87812  -0.81765  -0.79773
 Alpha  occ. eigenvalues --   -0.75567  -0.74313  -0.66101  -0.64580  -0.63653
 Alpha  occ. eigenvalues --   -0.60399  -0.58677  -0.57512  -0.57197  -0.55500
 Alpha  occ. eigenvalues --   -0.54812  -0.53231  -0.51874  -0.49799  -0.48521
 Alpha  occ. eigenvalues --   -0.47366  -0.46986  -0.46569  -0.46185  -0.44595
 Alpha  occ. eigenvalues --   -0.43745  -0.43148  -0.42564  -0.39622
 Alpha virt. eigenvalues --    0.23514   0.24048   0.26670   0.28727   0.29557
 Alpha virt. eigenvalues --    0.30381   0.31260   0.32674   0.32845   0.33402
 Alpha virt. eigenvalues --    0.34323   0.35290   0.35476   0.35818   0.36496

 Mulliken atomic charges:
              1
     1  C   -0.251620
     2  C   -0.389542
     3  C   -0.407925
     4  C   -0.388915
     5  C   -0.273747
     6  H    0.207566
     7  H    0.206331
     8  H    0.203096
     9  H    0.202220
    10  H    0.203169
    11  H    0.203399
    12  H    0.202056
    13  H    0.209813
    14  C   -0.373990
    15  H    0.205966
    16  H    0.203212
    17  C   -0.415449
    18  H    0.208828
    19  H    0.207375
    20  C   -0.403292
    21  H    0.204610
    22  H    0.204912
    23  C   -0.429131
    24  H    0.206160
    25  H    0.206384
    26  C   -0.588719
    27  H    0.199019
    28  H    0.199004
    29  H    0.198965
    30  C   -0.548201
    31  H    0.196450
    32  H    0.196337
    33  H    0.195659
 Sum of Mulliken atomic charges =   0.00000

 Dipole moment (field-independent basis, Debye):
    X=              0.0187    Y=             -0.0161    Z=              0.0266  Tot=              0.0363
 Quadrupole moment (field-independent basis, Debye-Ang):
   XX=            -77.0877   YY=            -75.1468   ZZ=            -73.5805
   XY=             -0.2002   XZ=              0.0497   YZ=             -0.4348

 Normal termination of Gaussian 09 at Sun Jun 26 00:36:41 2022.
